TITLE = "  "
VARIABLES = "x_mat","y_mat","z_mat","x_mat","y_mat","z_mat"
ZONE N=8, E= 1, F=FEPOINT, ET=BRICK, SOLUTIONTIME= 2.0000e-01
0.0000e+00 0.0000e+00 1.0000e+00 0.0000e+00 0.0000e+00 1.0000e+00
0.0000e+00 0.0000e+00 0.0000e+00 0.0000e+00 0.0000e+00 0.0000e+00
0.0000e+00 1.0000e+00 0.0000e+00 0.0000e+00 1.0000e+00 0.0000e+00
0.0000e+00 1.0000e+00 1.0000e+00 0.0000e+00 1.0000e+00 1.0000e+00
1.0000e+00 0.0000e+00 1.0000e+00 1.0000e+00 0.0000e+00 1.0000e+00
1.0000e+00 0.0000e+00 0.0000e+00 1.0000e+00 0.0000e+00 0.0000e+00
1.0000e+00 1.0000e+00 0.0000e+00 1.0000e+00 1.0000e+00 0.0000e+00
1.0000e+00 1.0000e+00 1.0000e+00 1.0000e+00 1.0000e+00 1.0000e+00
1 2 3 4 5 6 7 8
ZONE N=8, E= 1, F=FEPOINT, ET=BRICK, SOLUTIONTIME= 4.0000e-01
0.0000e+00 0.0000e+00 1.0000e+00 1.2791e-02 1.2791e-02 1.1000e+00
0.0000e+00 0.0000e+00 0.0000e+00 0.0000e+00 0.0000e+00 0.0000e+00
0.0000e+00 1.0000e+00 0.0000e+00 0.0000e+00 1.0000e+00 0.0000e+00
0.0000e+00 1.0000e+00 1.0000e+00 1.2791e-02 9.8721e-01 1.1000e+00
1.0000e+00 0.0000e+00 1.0000e+00 9.8721e-01 1.2791e-02 1.1000e+00
1.0000e+00 0.0000e+00 0.0000e+00 1.0000e+00 0.0000e+00 0.0000e+00
1.0000e+00 1.0000e+00 0.0000e+00 1.0000e+00 1.0000e+00 0.0000e+00
1.0000e+00 1.0000e+00 1.0000e+00 9.8721e-01 9.8721e-01 1.1000e+00
1 2 3 4 5 6 7 8
ZONE N=8, E= 1, F=FEPOINT, ET=BRICK, SOLUTIONTIME= 6.0000e-01
0.0000e+00 0.0000e+00 1.0000e+00 2.2885e-02 2.2885e-02 1.2000e+00
0.0000e+00 0.0000e+00 0.0000e+00 0.0000e+00 0.0000e+00 0.0000e+00
0.0000e+00 1.0000e+00 0.0000e+00 0.0000e+00 1.0000e+00 0.0000e+00
0.0000e+00 1.0000e+00 1.0000e+00 2.2885e-02 9.7711e-01 1.2000e+00
1.0000e+00 0.0000e+00 1.0000e+00 9.7711e-01 2.2885e-02 1.2000e+00
1.0000e+00 0.0000e+00 0.0000e+00 1.0000e+00 0.0000e+00 0.0000e+00
1.0000e+00 1.0000e+00 0.0000e+00 1.0000e+00 1.0000e+00 0.0000e+00
1.0000e+00 1.0000e+00 1.0000e+00 9.7711e-01 9.7711e-01 1.2000e+00
1 2 3 4 5 6 7 8
ZONE N=8, E= 1, F=FEPOINT, ET=BRICK, SOLUTIONTIME= 8.0000e-01
0.0000e+00 0.0000e+00 1.0000e+00 3.0818e-02 3.0818e-02 1.3000e+00
0.0000e+00 0.0000e+00 0.0000e+00 0.0000e+00 0.0000e+00 0.0000e+00
0.0000e+00 1.0000e+00 0.0000e+00 0.0000e+00 1.0000e+00 0.0000e+00
0.0000e+00 1.0000e+00 1.0000e+00 3.0818e-02 9.6918e-01 1.3000e+00
1.0000e+00 0.0000e+00 1.0000e+00 9.6918e-01 3.0818e-02 1.3000e+00
1.0000e+00 0.0000e+00 0.0000e+00 1.0000e+00 0.0000e+00 0.0000e+00
1.0000e+00 1.0000e+00 0.0000e+00 1.0000e+00 1.0000e+00 0.0000e+00
1.0000e+00 1.0000e+00 1.0000e+00 9.6918e-01 9.6918e-01 1.3000e+00
1 2 3 4 5 6 7 8
ZONE N=8, E= 1, F=FEPOINT, ET=BRICK, SOLUTIONTIME= 1.0000e+00
0.0000e+00 0.0000e+00 1.0000e+00 3.6989e-02 3.6989e-02 1.4000e+00
0.0000e+00 0.0000e+00 0.0000e+00 0.0000e+00 0.0000e+00 0.0000e+00
0.0000e+00 1.0000e+00 0.0000e+00 0.0000e+00 1.0000e+00 0.0000e+00
0.0000e+00 1.0000e+00 1.0000e+00 3.6989e-02 9.6301e-01 1.4000e+00
1.0000e+00 0.0000e+00 1.0000e+00 9.6301e-01 3.6989e-02 1.4000e+00
1.0000e+00 0.0000e+00 0.0000e+00 1.0000e+00 0.0000e+00 0.0000e+00
1.0000e+00 1.0000e+00 0.0000e+00 1.0000e+00 1.0000e+00 0.0000e+00
1.0000e+00 1.0000e+00 1.0000e+00 9.6301e-01 9.6301e-01 1.4000e+00
1 2 3 4 5 6 7 8
ZONE N=8, E= 1, F=FEPOINT, ET=BRICK, SOLUTIONTIME= 1.2000e+00
0.0000e+00 0.0000e+00 1.0000e+00 4.1702e-02 4.1702e-02 1.5000e+00
0.0000e+00 0.0000e+00 0.0000e+00 0.0000e+00 0.0000e+00 0.0000e+00
0.0000e+00 1.0000e+00 0.0000e+00 0.0000e+00 1.0000e+00 0.0000e+00
0.0000e+00 1.0000e+00 1.0000e+00 4.1702e-02 9.5830e-01 1.5000e+00
1.0000e+00 0.0000e+00 1.0000e+00 9.5830e-01 4.1702e-02 1.5000e+00
1.0000e+00 0.0000e+00 0.0000e+00 1.0000e+00 0.0000e+00 0.0000e+00
1.0000e+00 1.0000e+00 0.0000e+00 1.0000e+00 1.0000e+00 0.0000e+00
1.0000e+00 1.0000e+00 1.0000e+00 9.5830e-01 9.5830e-01 1.5000e+00
1 2 3 4 5 6 7 8
ZONE N=8, E= 1, F=FEPOINT, ET=BRICK, SOLUTIONTIME= 1.4000e+00
0.0000e+00 0.0000e+00 1.0000e+00 2.2316e-02 2.2316e-02 1.5000e+00
0.0000e+00 0.0000e+00 0.0000e+00 0.0000e+00 0.0000e+00 0.0000e+00
0.0000e+00 1.0000e+00 0.0000e+00 0.0000e+00 1.0000e+00 0.0000e+00
0.0000e+00 1.0000e+00 1.0000e+00 2.2316e-02 9.7768e-01 1.5000e+00
1.0000e+00 0.0000e+00 1.0000e+00 9.7768e-01 2.2316e-02 1.5000e+00
1.0000e+00 0.0000e+00 0.0000e+00 1.0000e+00 0.0000e+00 0.0000e+00
1.0000e+00 1.0000e+00 0.0000e+00 1.0000e+00 1.0000e+00 0.0000e+00
1.0000e+00 1.0000e+00 1.0000e+00 9.7768e-01 9.7768e-01 1.5000e+00
1 2 3 4 5 6 7 8
ZONE N=8, E= 1, F=FEPOINT, ET=BRICK, SOLUTIONTIME= 1.6000e+00
0.0000e+00 0.0000e+00 1.0000e+00 2.8324e-03 2.8324e-03 1.5000e+00
0.0000e+00 0.0000e+00 0.0000e+00 0.0000e+00 0.0000e+00 0.0000e+00
0.0000e+00 1.0000e+00 0.0000e+00 0.0000e+00 1.0000e+00 0.0000e+00
0.0000e+00 1.0000e+00 1.0000e+00 2.8324e-03 9.9717e-01 1.5000e+00
1.0000e+00 0.0000e+00 1.0000e+00 9.9717e-01 2.8324e-03 1.5000e+00
1.0000e+00 0.0000e+00 0.0000e+00 1.0000e+00 0.0000e+00 0.0000e+00
1.0000e+00 1.0000e+00 0.0000e+00 1.0000e+00 1.0000e+00 0.0000e+00
1.0000e+00 1.0000e+00 1.0000e+00 9.9717e-01 9.9717e-01 1.5000e+00
1 2 3 4 5 6 7 8
ZONE N=8, E= 1, F=FEPOINT, ET=BRICK, SOLUTIONTIME= 1.8000e+00
0.0000e+00 0.0000e+00 1.0000e+00 -1.6754e-02 -1.6754e-02 1.5000e+00
0.0000e+00 0.0000e+00 0.0000e+00 0.0000e+00 0.0000e+00 0.0000e+00
0.0000e+00 1.0000e+00 0.0000e+00 0.0000e+00 1.0000e+00 0.0000e+00
0.0000e+00 1.0000e+00 1.0000e+00 -1.6754e-02 1.0168e+00 1.5000e+00
1.0000e+00 0.0000e+00 1.0000e+00 1.0168e+00 -1.6754e-02 1.5000e+00
1.0000e+00 0.0000e+00 0.0000e+00 1.0000e+00 0.0000e+00 0.0000e+00
1.0000e+00 1.0000e+00 0.0000e+00 1.0000e+00 1.0000e+00 0.0000e+00
1.0000e+00 1.0000e+00 1.0000e+00 1.0168e+00 1.0168e+00 1.5000e+00
1 2 3 4 5 6 7 8
ZONE N=8, E= 1, F=FEPOINT, ET=BRICK, SOLUTIONTIME= 2.0000e+00
0.0000e+00 0.0000e+00 1.0000e+00 -3.6449e-02 -3.6449e-02 1.5000e+00
0.0000e+00 0.0000e+00 0.0000e+00 0.0000e+00 0.0000e+00 0.0000e+00
0.0000e+00 1.0000e+00 0.0000e+00 0.0000e+00 1.0000e+00 0.0000e+00
0.0000e+00 1.0000e+00 1.0000e+00 -3.6449e-02 1.0364e+00 1.5000e+00
1.0000e+00 0.0000e+00 1.0000e+00 1.0364e+00 -3.6449e-02 1.5000e+00
1.0000e+00 0.0000e+00 0.0000e+00 1.0000e+00 0.0000e+00 0.0000e+00
1.0000e+00 1.0000e+00 0.0000e+00 1.0000e+00 1.0000e+00 0.0000e+00
1.0000e+00 1.0000e+00 1.0000e+00 1.0364e+00 1.0364e+00 1.5000e+00
1 2 3 4 5 6 7 8
