TITLE = "  "
VARIABLES = "x_mat","y_mat","x_cur","y_cur"
ZONE N=63, E= 40, F=FEPOINT, ET=QUADRILATERAL, SOLUTIONTIME= 1.0000e+00
0.0000e+00 1.0000e+00 0.0000e+00 1.0000e+00
0.0000e+00 5.0000e-01 0.0000e+00 5.0000e-01
4.9432e-01 5.9474e-01 4.9432e-01 5.9474e-01
4.9432e-01 1.0947e+00 4.9432e-01 1.0947e+00
0.0000e+00 0.0000e+00 0.0000e+00 0.0000e+00
4.9432e-01 9.4745e-02 4.9432e-01 9.4745e-02
9.9043e-01 6.7962e-01 9.9043e-01 6.7962e-01
9.9043e-01 1.1796e+00 9.9043e-01 1.1796e+00
9.9043e-01 1.7962e-01 9.9043e-01 1.7962e-01
1.4881e+00 7.5459e-01 1.4881e+00 7.5459e-01
1.4881e+00 1.2546e+00 1.4881e+00 1.2546e+00
1.4881e+00 2.5459e-01 1.4881e+00 2.5459e-01
1.9872e+00 8.1962e-01 1.9872e+00 8.1962e-01
1.9872e+00 1.3196e+00 1.9872e+00 1.3196e+00
1.9872e+00 3.1962e-01 1.9872e+00 3.1962e-01
2.4875e+00 8.7469e-01 2.4875e+00 8.7469e-01
2.4875e+00 1.3747e+00 2.4875e+00 1.3747e+00
2.4875e+00 3.7469e-01 2.4875e+00 3.7469e-01
2.9888e+00 9.1978e-01 2.9888e+00 9.1978e-01
2.9888e+00 1.4198e+00 2.9888e+00 1.4198e+00
2.9888e+00 4.1978e-01 2.9888e+00 4.1978e-01
3.4909e+00 9.5486e-01 3.4909e+00 9.5486e-01
3.4909e+00 1.4549e+00 3.4909e+00 1.4549e+00
3.4909e+00 4.5486e-01 3.4909e+00 4.5486e-01
3.9936e+00 9.7994e-01 3.9936e+00 9.7994e-01
3.9936e+00 1.4799e+00 3.9936e+00 1.4799e+00
3.9936e+00 4.7994e-01 3.9936e+00 4.7994e-01
4.4967e+00 9.9498e-01 4.4967e+00 9.9498e-01
4.4967e+00 1.4950e+00 4.4967e+00 1.4950e+00
4.4967e+00 4.9498e-01 4.4967e+00 4.9498e-01
5.0000e+00 1.0000e+00 5.0000e+00 1.0000e+00
5.0000e+00 1.5000e+00 5.0000e+00 1.5000e+00
5.0000e+00 5.0000e-01 5.0000e+00 5.0000e-01
5.5033e+00 9.9498e-01 5.5033e+00 9.9498e-01
5.5033e+00 1.4950e+00 5.5033e+00 1.4950e+00
5.5033e+00 4.9498e-01 5.5033e+00 4.9498e-01
6.0064e+00 9.7994e-01 6.0064e+00 9.7994e-01
6.0064e+00 1.4799e+00 6.0064e+00 1.4799e+00
6.0064e+00 4.7994e-01 6.0064e+00 4.7994e-01
6.5091e+00 9.5486e-01 6.5091e+00 9.5486e-01
6.5091e+00 1.4549e+00 6.5091e+00 1.4549e+00
6.5091e+00 4.5486e-01 6.5091e+00 4.5486e-01
7.0112e+00 9.1978e-01 7.0112e+00 9.1978e-01
7.0112e+00 1.4198e+00 7.0112e+00 1.4198e+00
7.0112e+00 4.1978e-01 7.0112e+00 4.1978e-01
7.5125e+00 8.7469e-01 7.5125e+00 8.7469e-01
7.5125e+00 1.3747e+00 7.5125e+00 1.3747e+00
7.5125e+00 3.7469e-01 7.5125e+00 3.7469e-01
8.0128e+00 8.1962e-01 8.0128e+00 8.1962e-01
8.0128e+00 1.3196e+00 8.0128e+00 1.3196e+00
8.0128e+00 3.1962e-01 8.0128e+00 3.1962e-01
8.5119e+00 7.5459e-01 8.5119e+00 7.5459e-01
8.5119e+00 1.2546e+00 8.5119e+00 1.2546e+00
8.5119e+00 2.5459e-01 8.5119e+00 2.5459e-01
9.0096e+00 6.7962e-01 9.0096e+00 6.7962e-01
9.0096e+00 1.1796e+00 9.0096e+00 1.1796e+00
9.0096e+00 1.7962e-01 9.0096e+00 1.7962e-01
9.5057e+00 5.9474e-01 9.5057e+00 5.9474e-01
9.5057e+00 1.0947e+00 9.5057e+00 1.0947e+00
9.5057e+00 9.4745e-02 9.5057e+00 9.4745e-02
1.0000e+01 5.0000e-01 1.0000e+01 5.0000e-01
1.0000e+01 1.0000e+00 1.0000e+01 1.0000e+00
1.0000e+01 0.0000e+00 1.0000e+01 0.0000e+00
1 2 3 4
2 5 6 3
4 3 7 8
3 6 9 7
8 7 10 11
7 9 12 10
11 10 13 14
10 12 15 13
14 13 16 17
13 15 18 16
17 16 19 20
16 18 21 19
20 19 22 23
19 21 24 22
23 22 25 26
22 24 27 25
26 25 28 29
25 27 30 28
29 28 31 32
28 30 33 31
32 31 34 35
31 33 36 34
35 34 37 38
34 36 39 37
38 37 40 41
37 39 42 40
41 40 43 44
40 42 45 43
44 43 46 47
43 45 48 46
47 46 49 50
46 48 51 49
50 49 52 53
49 51 54 52
53 52 55 56
52 54 57 55
56 55 58 59
55 57 60 58
59 58 61 62
58 60 63 61
ZONE N=63, E= 40, F=FEPOINT, ET=QUADRILATERAL, SOLUTIONTIME= 2.0000e+00
0.0000e+00 1.0000e+00 8.7243e-04 1.0002e+00
0.0000e+00 5.0000e-01 8.4061e-05 5.0016e-01
4.9432e-01 5.9474e-01 4.9442e-01 5.9412e-01
4.9432e-01 1.0947e+00 4.9531e-01 1.0942e+00
0.0000e+00 0.0000e+00 0.0000e+00 0.0000e+00
4.9432e-01 9.4745e-02 4.9391e-01 9.3850e-02
9.9043e-01 6.7962e-01 9.9050e-01 6.7793e-01
9.9043e-01 1.1796e+00 9.9155e-01 1.1780e+00
9.9043e-01 1.7962e-01 9.8967e-01 1.7765e-01
1.4881e+00 7.5459e-01 1.4882e+00 7.5161e-01
1.4881e+00 1.2546e+00 1.4893e+00 1.2517e+00
1.4881e+00 2.5459e-01 1.4871e+00 2.5134e-01
1.9872e+00 8.1962e-01 1.9872e+00 8.1518e-01
1.9872e+00 1.3196e+00 1.9885e+00 1.3153e+00
1.9872e+00 3.1962e-01 1.9860e+00 3.1492e-01
2.4875e+00 8.7469e-01 2.4874e+00 8.6867e-01
2.4875e+00 1.3747e+00 2.4888e+00 1.3689e+00
2.4875e+00 3.7469e-01 2.4861e+00 3.6844e-01
2.9888e+00 9.1978e-01 2.9886e+00 9.1211e-01
2.9888e+00 1.4198e+00 2.9900e+00 1.4123e+00
2.9888e+00 4.1978e-01 2.9872e+00 4.1191e-01
3.4909e+00 9.5486e-01 3.4906e+00 9.4556e-01
3.4909e+00 1.4549e+00 3.4919e+00 1.4458e+00
3.4909e+00 4.5486e-01 3.4892e+00 4.4538e-01
3.9936e+00 9.7994e-01 3.9931e+00 9.6906e-01
3.9936e+00 1.4799e+00 3.9943e+00 1.4693e+00
3.9936e+00 4.7994e-01 3.9919e+00 4.6892e-01
4.4967e+00 9.9498e-01 4.4960e+00 9.8269e-01
4.4967e+00 1.4950e+00 4.4970e+00 1.4830e+00
4.4967e+00 4.9498e-01 4.4949e+00 4.8258e-01
5.0000e+00 1.0000e+00 4.9990e+00 9.8652e-01
5.0000e+00 1.5000e+00 4.9998e+00 1.4869e+00
5.0000e+00 5.0000e-01 4.9983e+00 4.8646e-01
5.5033e+00 9.9498e-01 5.5021e+00 9.8065e-01
5.5033e+00 1.4950e+00 5.5025e+00 1.4810e+00
5.5033e+00 4.9498e-01 5.5017e+00 4.8063e-01
6.0064e+00 9.7994e-01 6.0049e+00 9.6515e-01
6.0064e+00 1.4799e+00 6.0049e+00 1.4656e+00
6.0064e+00 4.7994e-01 6.0051e+00 4.6521e-01
6.5091e+00 9.5486e-01 6.5075e+00 9.4017e-01
6.5091e+00 1.4549e+00 6.5069e+00 1.4405e+00
6.5091e+00 4.5486e-01 6.5081e+00 4.4030e-01
7.0112e+00 9.1978e-01 7.0095e+00 9.0647e-01
7.0112e+00 1.4198e+00 7.0084e+00 1.4069e+00
7.0112e+00 4.1978e-01 7.0106e+00 4.0651e-01
7.5125e+00 8.7469e-01 7.5107e+00 8.6325e-01
7.5125e+00 1.3747e+00 7.5092e+00 1.3636e+00
7.5125e+00 3.7469e-01 7.5122e+00 3.6321e-01
8.0128e+00 8.1962e-01 8.0110e+00 8.1037e-01
8.0128e+00 1.3196e+00 8.0092e+00 1.3107e+00
8.0128e+00 3.1962e-01 8.0127e+00 3.1026e-01
8.5119e+00 7.5459e-01 8.5101e+00 7.4771e-01
8.5119e+00 1.2546e+00 8.5082e+00 1.2479e+00
8.5119e+00 2.5459e-01 8.5120e+00 2.4755e-01
9.0096e+00 6.7962e-01 9.0079e+00 6.7516e-01
9.0096e+00 1.1796e+00 9.0059e+00 1.1753e+00
9.0096e+00 1.7962e-01 9.0097e+00 1.7496e-01
9.5057e+00 5.9474e-01 9.5041e+00 5.9264e-01
9.5057e+00 1.0947e+00 9.5022e+00 1.0927e+00
9.5057e+00 9.4745e-02 9.5058e+00 9.2428e-02
1.0000e+01 5.0000e-01 9.9987e+00 5.0003e-01
1.0000e+01 1.0000e+00 9.9968e+00 1.0001e+00
1.0000e+01 0.0000e+00 1.0000e+01 0.0000e+00
1 2 3 4
2 5 6 3
4 3 7 8
3 6 9 7
8 7 10 11
7 9 12 10
11 10 13 14
10 12 15 13
14 13 16 17
13 15 18 16
17 16 19 20
16 18 21 19
20 19 22 23
19 21 24 22
23 22 25 26
22 24 27 25
26 25 28 29
25 27 30 28
29 28 31 32
28 30 33 31
32 31 34 35
31 33 36 34
35 34 37 38
34 36 39 37
38 37 40 41
37 39 42 40
41 40 43 44
40 42 45 43
44 43 46 47
43 45 48 46
47 46 49 50
46 48 51 49
50 49 52 53
49 51 54 52
53 52 55 56
52 54 57 55
56 55 58 59
55 57 60 58
59 58 61 62
58 60 63 61
ZONE N=63, E= 40, F=FEPOINT, ET=QUADRILATERAL, SOLUTIONTIME= 3.0000e+00
0.0000e+00 1.0000e+00 1.7976e-03 1.0005e+00
0.0000e+00 5.0000e-01 1.9114e-04 5.0033e-01
4.9432e-01 5.9474e-01 4.9454e-01 5.9347e-01
4.9432e-01 1.0947e+00 4.9635e-01 1.0936e+00
0.0000e+00 0.0000e+00 0.0000e+00 0.0000e+00
4.9432e-01 9.4745e-02 4.9351e-01 9.2927e-02
9.9043e-01 6.7962e-01 9.9059e-01 6.7618e-01
9.9043e-01 1.1796e+00 9.9272e-01 1.1764e+00
9.9043e-01 1.7962e-01 9.8891e-01 1.7562e-01
1.4881e+00 7.5459e-01 1.4882e+00 7.4854e-01
1.4881e+00 1.2546e+00 1.4906e+00 1.2488e+00
1.4881e+00 2.5459e-01 1.4861e+00 2.4799e-01
1.9872e+00 8.1962e-01 1.9872e+00 8.1062e-01
1.9872e+00 1.3196e+00 1.9898e+00 1.3109e+00
1.9872e+00 3.1962e-01 1.9847e+00 3.1010e-01
2.4875e+00 8.7469e-01 2.4873e+00 8.6249e-01
2.4875e+00 1.3747e+00 2.4901e+00 1.3629e+00
2.4875e+00 3.7469e-01 2.4846e+00 3.6202e-01
2.9888e+00 9.1978e-01 2.9884e+00 9.0425e-01
2.9888e+00 1.4198e+00 2.9912e+00 1.4047e+00
2.9888e+00 4.1978e-01 2.9856e+00 4.0384e-01
3.4909e+00 9.5486e-01 3.4902e+00 9.3602e-01
3.4909e+00 1.4549e+00 3.4929e+00 1.4365e+00
3.4909e+00 4.5486e-01 3.4875e+00 4.3567e-01
3.9936e+00 9.7994e-01 3.9925e+00 9.5793e-01
3.9936e+00 1.4799e+00 3.9950e+00 1.4585e+00
3.9936e+00 4.7994e-01 3.9901e+00 4.5764e-01
4.4967e+00 9.9498e-01 4.4952e+00 9.7011e-01
4.4967e+00 1.4950e+00 4.4973e+00 1.4708e+00
4.4967e+00 4.9498e-01 4.4932e+00 4.6990e-01
5.0000e+00 1.0000e+00 4.9980e+00 9.7275e-01
5.0000e+00 1.5000e+00 4.9995e+00 1.4735e+00
5.0000e+00 5.0000e-01 4.9966e+00 4.7262e-01
5.5033e+00 9.9498e-01 5.5008e+00 9.6600e-01
5.5033e+00 1.4950e+00 5.5016e+00 1.4668e+00
5.5033e+00 4.9498e-01 5.5002e+00 4.6597e-01
6.0064e+00 9.7994e-01 6.0035e+00 9.5007e-01
6.0064e+00 1.4799e+00 6.0033e+00 1.4509e+00
6.0064e+00 4.7994e-01 6.0038e+00 4.5017e-01
6.5091e+00 9.5486e-01 6.5059e+00 9.2518e-01
6.5091e+00 1.4549e+00 6.5047e+00 1.4258e+00
6.5091e+00 4.5486e-01 6.5072e+00 4.2545e-01
7.0112e+00 9.1978e-01 7.0078e+00 8.9290e-01
7.0112e+00 1.4198e+00 7.0056e+00 1.3937e+00
7.0112e+00 4.1978e-01 7.0101e+00 3.9299e-01
7.5125e+00 8.7469e-01 7.5089e+00 8.5159e-01
7.5125e+00 1.3747e+00 7.5059e+00 1.3523e+00
7.5125e+00 3.7469e-01 7.5120e+00 3.5150e-01
8.0128e+00 8.1962e-01 8.0091e+00 8.0093e-01
8.0128e+00 1.3196e+00 8.0055e+00 1.3015e+00
8.0128e+00 3.1962e-01 8.0127e+00 3.0072e-01
8.5119e+00 7.5459e-01 8.5083e+00 7.4069e-01
8.5119e+00 1.2546e+00 8.5044e+00 1.2411e+00
8.5119e+00 2.5459e-01 8.5121e+00 2.4037e-01
9.0096e+00 6.7962e-01 9.0062e+00 6.7061e-01
9.0096e+00 1.1796e+00 9.0021e+00 1.1709e+00
9.0096e+00 1.7962e-01 9.0099e+00 1.7021e-01
9.5057e+00 5.9474e-01 9.5026e+00 5.9048e-01
9.5057e+00 1.0947e+00 9.4987e+00 1.0907e+00
9.5057e+00 9.4745e-02 9.5059e+00 9.0065e-02
1.0000e+01 5.0000e-01 9.9974e+00 5.0007e-01
1.0000e+01 1.0000e+00 9.9936e+00 1.0001e+00
1.0000e+01 0.0000e+00 1.0000e+01 0.0000e+00
1 2 3 4
2 5 6 3
4 3 7 8
3 6 9 7
8 7 10 11
7 9 12 10
11 10 13 14
10 12 15 13
14 13 16 17
13 15 18 16
17 16 19 20
16 18 21 19
20 19 22 23
19 21 24 22
23 22 25 26
22 24 27 25
26 25 28 29
25 27 30 28
29 28 31 32
28 30 33 31
32 31 34 35
31 33 36 34
35 34 37 38
34 36 39 37
38 37 40 41
37 39 42 40
41 40 43 44
40 42 45 43
44 43 46 47
43 45 48 46
47 46 49 50
46 48 51 49
50 49 52 53
49 51 54 52
53 52 55 56
52 54 57 55
56 55 58 59
55 57 60 58
59 58 61 62
58 60 63 61
ZONE N=63, E= 40, F=FEPOINT, ET=QUADRILATERAL, SOLUTIONTIME= 4.0000e+00
0.0000e+00 1.0000e+00 2.7793e-03 1.0007e+00
0.0000e+00 5.0000e-01 3.2294e-04 5.0050e-01
4.9432e-01 5.9474e-01 4.9469e-01 5.9279e-01
4.9432e-01 1.0947e+00 4.9746e-01 1.0931e+00
0.0000e+00 0.0000e+00 0.0000e+00 0.0000e+00
4.9432e-01 9.4745e-02 4.9310e-01 9.1975e-02
9.9043e-01 6.7962e-01 9.9071e-01 6.7437e-01
9.9043e-01 1.1796e+00 9.9396e-01 1.1747e+00
9.9043e-01 1.7962e-01 9.8815e-01 1.7352e-01
1.4881e+00 7.5459e-01 1.4883e+00 7.4537e-01
1.4881e+00 1.2546e+00 1.4920e+00 1.2458e+00
1.4881e+00 2.5459e-01 1.4850e+00 2.4455e-01
1.9872e+00 8.1962e-01 1.9872e+00 8.0591e-01
1.9872e+00 1.3196e+00 1.9912e+00 1.3064e+00
1.9872e+00 3.1962e-01 1.9834e+00 3.0515e-01
2.4875e+00 8.7469e-01 2.4872e+00 8.5613e-01
2.4875e+00 1.3747e+00 2.4914e+00 1.3567e+00
2.4875e+00 3.7469e-01 2.4831e+00 3.5543e-01
2.9888e+00 9.1978e-01 2.9882e+00 8.9617e-01
2.9888e+00 1.4198e+00 2.9924e+00 1.3968e+00
2.9888e+00 4.1978e-01 2.9840e+00 3.9556e-01
3.4909e+00 9.5486e-01 3.4898e+00 9.2623e-01
3.4909e+00 1.4549e+00 3.4939e+00 1.4270e+00
3.4909e+00 4.5486e-01 3.4858e+00 4.2571e-01
3.9936e+00 9.7994e-01 3.9920e+00 9.4651e-01
3.9936e+00 1.4799e+00 3.9957e+00 1.4474e+00
3.9936e+00 4.7994e-01 3.9883e+00 4.4609e-01
4.4967e+00 9.9498e-01 4.4945e+00 9.5724e-01
4.4967e+00 1.4950e+00 4.4976e+00 1.4582e+00
4.4967e+00 4.9498e-01 4.4914e+00 4.5693e-01
5.0000e+00 1.0000e+00 4.9970e+00 9.5866e-01
5.0000e+00 1.5000e+00 4.9993e+00 1.4598e+00
5.0000e+00 5.0000e-01 4.9949e+00 4.5847e-01
5.5033e+00 9.9498e-01 5.4996e+00 9.5104e-01
5.5033e+00 1.4950e+00 5.5008e+00 1.4523e+00
5.5033e+00 4.9498e-01 5.4986e+00 4.5099e-01
6.0064e+00 9.7994e-01 6.0020e+00 9.3467e-01
6.0064e+00 1.4799e+00 6.0018e+00 1.4359e+00
6.0064e+00 4.7994e-01 6.0024e+00 4.3483e-01
6.5091e+00 9.5486e-01 6.5043e+00 9.0989e-01
6.5091e+00 1.4549e+00 6.5025e+00 1.4108e+00
6.5091e+00 4.5486e-01 6.5063e+00 4.1029e-01
7.0112e+00 9.1978e-01 7.0061e+00 8.7905e-01
7.0112e+00 1.4198e+00 7.0027e+00 1.3802e+00
7.0112e+00 4.1978e-01 7.0096e+00 3.7919e-01
7.5125e+00 8.7469e-01 7.5071e+00 8.3967e-01
7.5125e+00 1.3747e+00 7.5025e+00 1.3407e+00
7.5125e+00 3.7469e-01 7.5118e+00 3.3955e-01
8.0128e+00 8.1962e-01 8.0073e+00 7.9129e-01
8.0128e+00 1.3196e+00 8.0018e+00 1.2921e+00
8.0128e+00 3.1962e-01 8.0127e+00 2.9098e-01
8.5119e+00 7.5459e-01 8.5064e+00 7.3351e-01
8.5119e+00 1.2546e+00 8.5005e+00 1.2342e+00
8.5119e+00 2.5459e-01 8.5122e+00 2.3304e-01
9.0096e+00 6.7962e-01 9.0044e+00 6.6595e-01
9.0096e+00 1.1796e+00 8.9983e+00 1.1664e+00
9.0096e+00 1.7962e-01 9.0100e+00 1.6536e-01
9.5057e+00 5.9474e-01 9.5010e+00 5.8827e-01
9.5057e+00 1.0947e+00 9.4950e+00 1.0885e+00
9.5057e+00 9.4745e-02 9.5060e+00 8.7652e-02
1.0000e+01 5.0000e-01 9.9961e+00 5.0010e-01
1.0000e+01 1.0000e+00 9.9903e+00 1.0002e+00
1.0000e+01 0.0000e+00 1.0000e+01 0.0000e+00
1 2 3 4
2 5 6 3
4 3 7 8
3 6 9 7
8 7 10 11
7 9 12 10
11 10 13 14
10 12 15 13
14 13 16 17
13 15 18 16
17 16 19 20
16 18 21 19
20 19 22 23
19 21 24 22
23 22 25 26
22 24 27 25
26 25 28 29
25 27 30 28
29 28 31 32
28 30 33 31
32 31 34 35
31 33 36 34
35 34 37 38
34 36 39 37
38 37 40 41
37 39 42 40
41 40 43 44
40 42 45 43
44 43 46 47
43 45 48 46
47 46 49 50
46 48 51 49
50 49 52 53
49 51 54 52
53 52 55 56
52 54 57 55
56 55 58 59
55 57 60 58
59 58 61 62
58 60 63 61
ZONE N=63, E= 40, F=FEPOINT, ET=QUADRILATERAL, SOLUTIONTIME= 5.0000e+00
0.0000e+00 1.0000e+00 3.8216e-03 1.0010e+00
0.0000e+00 5.0000e-01 4.8135e-04 5.0067e-01
4.9432e-01 5.9474e-01 4.9487e-01 5.9208e-01
4.9432e-01 1.0947e+00 4.9863e-01 1.0924e+00
0.0000e+00 0.0000e+00 0.0000e+00 0.0000e+00
4.9432e-01 9.4745e-02 4.9269e-01 9.0990e-02
9.9043e-01 6.7962e-01 9.9087e-01 6.7250e-01
9.9043e-01 1.1796e+00 9.9526e-01 1.1730e+00
9.9043e-01 1.7962e-01 9.8738e-01 1.7136e-01
1.4881e+00 7.5459e-01 1.4884e+00 7.4210e-01
1.4881e+00 1.2546e+00 1.4934e+00 1.2426e+00
1.4881e+00 2.5459e-01 1.4839e+00 2.4100e-01
1.9872e+00 8.1962e-01 1.9872e+00 8.0107e-01
1.9872e+00 1.3196e+00 1.9927e+00 1.3017e+00
1.9872e+00 3.1962e-01 1.9821e+00 3.0004e-01
2.4875e+00 8.7469e-01 2.4872e+00 8.4958e-01
2.4875e+00 1.3747e+00 2.4929e+00 1.3503e+00
2.4875e+00 3.7469e-01 2.4817e+00 3.4866e-01
2.9888e+00 9.1978e-01 2.9880e+00 8.8787e-01
2.9888e+00 1.4198e+00 2.9937e+00 1.3887e+00
2.9888e+00 4.1978e-01 2.9824e+00 3.8706e-01
3.4909e+00 9.5486e-01 3.4895e+00 9.1618e-01
3.4909e+00 1.4549e+00 3.4950e+00 1.4172e+00
3.4909e+00 4.5486e-01 3.4840e+00 4.1549e-01
3.9936e+00 9.7994e-01 3.9915e+00 9.3480e-01
3.9936e+00 1.4799e+00 3.9965e+00 1.4360e+00
3.9936e+00 4.7994e-01 3.9865e+00 4.3425e-01
4.4967e+00 9.9498e-01 4.4937e+00 9.4404e-01
4.4967e+00 1.4950e+00 4.4979e+00 1.4454e+00
4.4967e+00 4.9498e-01 4.4896e+00 4.4363e-01
5.0000e+00 1.0000e+00 4.9960e+00 9.4423e-01
5.0000e+00 1.5000e+00 4.9991e+00 1.4457e+00
5.0000e+00 5.0000e-01 4.9931e+00 4.4398e-01
5.5033e+00 9.9498e-01 5.4983e+00 9.3573e-01
5.5033e+00 1.4950e+00 5.4999e+00 1.4374e+00
5.5033e+00 4.9498e-01 5.4970e+00 4.3567e-01
6.0064e+00 9.7994e-01 6.0005e+00 9.1893e-01
6.0064e+00 1.4799e+00 6.0002e+00 1.4206e+00
6.0064e+00 4.7994e-01 6.0011e+00 4.1915e-01
6.5091e+00 9.5486e-01 6.5026e+00 8.9428e-01
6.5091e+00 1.4549e+00 6.5002e+00 1.3955e+00
6.5091e+00 4.5486e-01 6.5054e+00 3.9482e-01
7.0112e+00 9.1978e-01 7.0044e+00 8.6491e-01
7.0112e+00 1.4198e+00 6.9998e+00 1.3665e+00
7.0112e+00 4.1978e-01 7.0091e+00 3.6511e-01
7.5125e+00 8.7469e-01 7.5053e+00 8.2750e-01
7.5125e+00 1.3747e+00 7.4991e+00 1.3289e+00
7.5125e+00 3.7469e-01 7.5116e+00 3.2735e-01
8.0128e+00 8.1962e-01 8.0054e+00 7.8143e-01
8.0128e+00 1.3196e+00 7.9980e+00 1.2826e+00
8.0128e+00 3.1962e-01 8.0127e+00 2.8103e-01
8.5119e+00 7.5459e-01 8.5046e+00 7.2616e-01
8.5119e+00 1.2546e+00 8.4966e+00 1.2270e+00
8.5119e+00 2.5459e-01 8.5123e+00 2.2555e-01
9.0096e+00 6.7962e-01 9.0026e+00 6.6118e-01
9.0096e+00 1.1796e+00 8.9944e+00 1.1618e+00
9.0096e+00 1.7962e-01 9.0102e+00 1.6041e-01
9.5057e+00 5.9474e-01 9.4993e+00 5.8601e-01
9.5057e+00 1.0947e+00 9.4913e+00 1.0863e+00
9.5057e+00 9.4745e-02 9.5061e+00 8.5186e-02
1.0000e+01 5.0000e-01 9.9947e+00 5.0012e-01
1.0000e+01 1.0000e+00 9.9868e+00 1.0002e+00
1.0000e+01 0.0000e+00 1.0000e+01 0.0000e+00
1 2 3 4
2 5 6 3
4 3 7 8
3 6 9 7
8 7 10 11
7 9 12 10
11 10 13 14
10 12 15 13
14 13 16 17
13 15 18 16
17 16 19 20
16 18 21 19
20 19 22 23
19 21 24 22
23 22 25 26
22 24 27 25
26 25 28 29
25 27 30 28
29 28 31 32
28 30 33 31
32 31 34 35
31 33 36 34
35 34 37 38
34 36 39 37
38 37 40 41
37 39 42 40
41 40 43 44
40 42 45 43
44 43 46 47
43 45 48 46
47 46 49 50
46 48 51 49
50 49 52 53
49 51 54 52
53 52 55 56
52 54 57 55
56 55 58 59
55 57 60 58
59 58 61 62
58 60 63 61
ZONE N=63, E= 40, F=FEPOINT, ET=QUADRILATERAL, SOLUTIONTIME= 6.0000e+00
0.0000e+00 1.0000e+00 4.9289e-03 1.0013e+00
0.0000e+00 5.0000e-01 6.6847e-04 5.0084e-01
4.9432e-01 5.9474e-01 4.9508e-01 5.9134e-01
4.9432e-01 1.0947e+00 4.9987e-01 1.0918e+00
0.0000e+00 0.0000e+00 0.0000e+00 0.0000e+00
4.9432e-01 9.4745e-02 4.9227e-01 8.9971e-02
9.9043e-01 6.7962e-01 9.9105e-01 6.7055e-01
9.9043e-01 1.1796e+00 9.9664e-01 1.1711e+00
9.9043e-01 1.7962e-01 9.8661e-01 1.6913e-01
1.4881e+00 7.5459e-01 1.4885e+00 7.3872e-01
1.4881e+00 1.2546e+00 1.4948e+00 1.2394e+00
1.4881e+00 2.5459e-01 1.4829e+00 2.3735e-01
1.9872e+00 8.1962e-01 1.9873e+00 7.9606e-01
1.9872e+00 1.3196e+00 1.9942e+00 1.2969e+00
1.9872e+00 3.1962e-01 1.9808e+00 2.9479e-01
2.4875e+00 8.7469e-01 2.4872e+00 8.4283e-01
2.4875e+00 1.3747e+00 2.4943e+00 1.3438e+00
2.4875e+00 3.7469e-01 2.4802e+00 3.4168e-01
2.9888e+00 9.1978e-01 2.9879e+00 8.7932e-01
2.9888e+00 1.4198e+00 2.9951e+00 1.3804e+00
2.9888e+00 4.1978e-01 2.9807e+00 3.7832e-01
3.4909e+00 9.5486e-01 3.4892e+00 9.0585e-01
3.4909e+00 1.4549e+00 3.4961e+00 1.4071e+00
3.4909e+00 4.5486e-01 3.4823e+00 4.0500e-01
3.9936e+00 9.7994e-01 3.9910e+00 9.2278e-01
3.9936e+00 1.4799e+00 3.9973e+00 1.4242e+00
3.9936e+00 4.7994e-01 3.9847e+00 4.2210e-01
4.4967e+00 9.9498e-01 4.4930e+00 9.3050e-01
4.4967e+00 1.4950e+00 4.4982e+00 1.4322e+00
4.4967e+00 4.9498e-01 4.4878e+00 4.3001e-01
5.0000e+00 1.0000e+00 4.9951e+00 9.2944e-01
5.0000e+00 1.5000e+00 4.9989e+00 1.4313e+00
5.0000e+00 5.0000e-01 4.9914e+00 4.2915e-01
5.5033e+00 9.9498e-01 5.4971e+00 9.2005e-01
5.5033e+00 1.4950e+00 5.4990e+00 1.4221e+00
5.5033e+00 4.9498e-01 5.4954e+00 4.1999e-01
6.0064e+00 9.7994e-01 5.9990e+00 9.0282e-01
6.0064e+00 1.4799e+00 5.9986e+00 1.4050e+00
6.0064e+00 4.7994e-01 5.9998e+00 4.0311e-01
6.5091e+00 9.5486e-01 6.5010e+00 8.7833e-01
6.5091e+00 1.4549e+00 6.4979e+00 1.3798e+00
6.5091e+00 4.5486e-01 6.5045e+00 3.7901e-01
7.0112e+00 9.1978e-01 7.0026e+00 8.5045e-01
7.0112e+00 1.4198e+00 6.9969e+00 1.3524e+00
7.0112e+00 4.1978e-01 7.0086e+00 3.5071e-01
7.5125e+00 8.7469e-01 7.5034e+00 8.1505e-01
7.5125e+00 1.3747e+00 7.4956e+00 1.3168e+00
7.5125e+00 3.7469e-01 7.5115e+00 3.1488e-01
8.0128e+00 8.1962e-01 8.0035e+00 7.7134e-01
8.0128e+00 1.3196e+00 7.9942e+00 1.2727e+00
8.0128e+00 3.1962e-01 8.0128e+00 2.7086e-01
8.5119e+00 7.5459e-01 8.5026e+00 7.1863e-01
8.5119e+00 1.2546e+00 8.4925e+00 1.2197e+00
8.5119e+00 2.5459e-01 8.5125e+00 2.1790e-01
9.0096e+00 6.7962e-01 9.0007e+00 6.5628e-01
9.0096e+00 1.1796e+00 8.9904e+00 1.1570e+00
9.0096e+00 1.7962e-01 9.0104e+00 1.5534e-01
9.5057e+00 5.9474e-01 9.4976e+00 5.8368e-01
9.5057e+00 1.0947e+00 9.4874e+00 1.0840e+00
9.5057e+00 9.4745e-02 9.5062e+00 8.2665e-02
1.0000e+01 5.0000e-01 9.9933e+00 5.0014e-01
1.0000e+01 1.0000e+00 9.9833e+00 1.0002e+00
1.0000e+01 0.0000e+00 1.0000e+01 0.0000e+00
1 2 3 4
2 5 6 3
4 3 7 8
3 6 9 7
8 7 10 11
7 9 12 10
11 10 13 14
10 12 15 13
14 13 16 17
13 15 18 16
17 16 19 20
16 18 21 19
20 19 22 23
19 21 24 22
23 22 25 26
22 24 27 25
26 25 28 29
25 27 30 28
29 28 31 32
28 30 33 31
32 31 34 35
31 33 36 34
35 34 37 38
34 36 39 37
38 37 40 41
37 39 42 40
41 40 43 44
40 42 45 43
44 43 46 47
43 45 48 46
47 46 49 50
46 48 51 49
50 49 52 53
49 51 54 52
53 52 55 56
52 54 57 55
56 55 58 59
55 57 60 58
59 58 61 62
58 60 63 61
ZONE N=63, E= 40, F=FEPOINT, ET=QUADRILATERAL, SOLUTIONTIME= 7.0000e+00
0.0000e+00 1.0000e+00 6.1063e-03 1.0015e+00
0.0000e+00 5.0000e-01 8.8662e-04 5.0102e-01
4.9432e-01 5.9474e-01 4.9533e-01 5.9057e-01
4.9432e-01 1.0947e+00 5.0119e-01 1.0911e+00
0.0000e+00 0.0000e+00 0.0000e+00 0.0000e+00
4.9432e-01 9.4745e-02 4.9186e-01 8.8916e-02
9.9043e-01 6.7962e-01 9.9128e-01 6.6853e-01
9.9043e-01 1.1796e+00 9.9809e-01 1.1692e+00
9.9043e-01 1.7962e-01 9.8584e-01 1.6682e-01
1.4881e+00 7.5459e-01 1.4887e+00 7.3521e-01
1.4881e+00 1.2546e+00 1.4964e+00 1.2360e+00
1.4881e+00 2.5459e-01 1.4818e+00 2.3357e-01
1.9872e+00 8.1962e-01 1.9874e+00 7.9089e-01
1.9872e+00 1.3196e+00 1.9958e+00 1.2918e+00
1.9872e+00 3.1962e-01 1.9795e+00 2.8936e-01
2.4875e+00 8.7469e-01 2.4872e+00 8.3587e-01
2.4875e+00 1.3747e+00 2.4959e+00 1.3370e+00
2.4875e+00 3.7469e-01 2.4786e+00 3.3450e-01
2.9888e+00 9.1978e-01 2.9877e+00 8.7051e-01
2.9888e+00 1.4198e+00 2.9965e+00 1.3718e+00
2.9888e+00 4.1978e-01 2.9790e+00 3.6932e-01
3.4909e+00 9.5486e-01 3.4889e+00 8.9522e-01
3.4909e+00 1.4549e+00 3.4973e+00 1.3967e+00
3.4909e+00 4.5486e-01 3.4805e+00 3.9421e-01
3.9936e+00 9.7994e-01 3.9904e+00 9.1042e-01
3.9936e+00 1.4799e+00 3.9981e+00 1.4122e+00
3.9936e+00 4.7994e-01 3.9828e+00 4.0962e-01
4.4967e+00 9.9498e-01 4.4922e+00 9.1660e-01
4.4967e+00 1.4950e+00 4.4986e+00 1.4186e+00
4.4967e+00 4.9498e-01 4.4859e+00 4.1602e-01
5.0000e+00 1.0000e+00 4.9941e+00 9.1427e-01
5.0000e+00 1.5000e+00 4.9987e+00 1.4165e+00
5.0000e+00 5.0000e-01 4.9896e+00 4.1393e-01
5.5033e+00 9.9498e-01 5.4958e+00 9.0399e-01
5.5033e+00 1.4950e+00 5.4982e+00 1.4065e+00
5.5033e+00 4.9498e-01 5.4938e+00 4.0393e-01
6.0064e+00 9.7994e-01 5.9975e+00 8.8634e-01
6.0064e+00 1.4799e+00 5.9970e+00 1.3890e+00
6.0064e+00 4.7994e-01 5.9985e+00 3.8669e-01
6.5091e+00 9.5486e-01 6.4994e+00 8.6201e-01
6.5091e+00 1.4549e+00 6.4956e+00 1.3638e+00
6.5091e+00 4.5486e-01 6.5036e+00 3.6285e-01
7.0112e+00 9.1978e-01 7.0009e+00 8.3565e-01
7.0112e+00 1.4198e+00 6.9939e+00 1.3380e+00
7.0112e+00 4.1978e-01 7.0082e+00 3.3599e-01
7.5125e+00 8.7469e-01 7.5016e+00 8.0230e-01
7.5125e+00 1.3747e+00 7.4920e+00 1.3044e+00
7.5125e+00 3.7469e-01 7.5113e+00 3.0213e-01
8.0128e+00 8.1962e-01 8.0015e+00 7.6100e-01
8.0128e+00 1.3196e+00 7.9903e+00 1.2627e+00
8.0128e+00 3.1962e-01 8.0129e+00 2.6046e-01
8.5119e+00 7.5459e-01 8.5007e+00 7.1092e-01
8.5119e+00 1.2546e+00 8.4884e+00 1.2122e+00
8.5119e+00 2.5459e-01 8.5127e+00 2.1006e-01
9.0096e+00 6.7962e-01 8.9988e+00 6.5126e-01
9.0096e+00 1.1796e+00 8.9862e+00 1.1522e+00
9.0096e+00 1.7962e-01 9.0105e+00 1.5015e-01
9.5057e+00 5.9474e-01 9.4958e+00 5.8128e-01
9.5057e+00 1.0947e+00 9.4835e+00 1.0817e+00
9.5057e+00 9.4745e-02 9.5063e+00 8.0084e-02
1.0000e+01 5.0000e-01 9.9918e+00 5.0016e-01
1.0000e+01 1.0000e+00 9.9796e+00 1.0002e+00
1.0000e+01 0.0000e+00 1.0000e+01 0.0000e+00
1 2 3 4
2 5 6 3
4 3 7 8
3 6 9 7
8 7 10 11
7 9 12 10
11 10 13 14
10 12 15 13
14 13 16 17
13 15 18 16
17 16 19 20
16 18 21 19
20 19 22 23
19 21 24 22
23 22 25 26
22 24 27 25
26 25 28 29
25 27 30 28
29 28 31 32
28 30 33 31
32 31 34 35
31 33 36 34
35 34 37 38
34 36 39 37
38 37 40 41
37 39 42 40
41 40 43 44
40 42 45 43
44 43 46 47
43 45 48 46
47 46 49 50
46 48 51 49
50 49 52 53
49 51 54 52
53 52 55 56
52 54 57 55
56 55 58 59
55 57 60 58
59 58 61 62
58 60 63 61
ZONE N=63, E= 40, F=FEPOINT, ET=QUADRILATERAL, SOLUTIONTIME= 8.0000e+00
0.0000e+00 1.0000e+00 7.3595e-03 1.0018e+00
0.0000e+00 5.0000e-01 1.1384e-03 5.0120e-01
4.9432e-01 5.9474e-01 4.9562e-01 5.8975e-01
4.9432e-01 1.0947e+00 5.0258e-01 1.0904e+00
0.0000e+00 0.0000e+00 0.0000e+00 0.0000e+00
4.9432e-01 9.4745e-02 4.9144e-01 8.7820e-02
9.9043e-01 6.7962e-01 9.9154e-01 6.6642e-01
9.9043e-01 1.1796e+00 9.9964e-01 1.1672e+00
9.9043e-01 1.7962e-01 9.8506e-01 1.6442e-01
1.4881e+00 7.5459e-01 1.4889e+00 7.3157e-01
1.4881e+00 1.2546e+00 1.4980e+00 1.2325e+00
1.4881e+00 2.5459e-01 1.4807e+00 2.2965e-01
1.9872e+00 8.1962e-01 1.9875e+00 7.8553e-01
1.9872e+00 1.3196e+00 1.9974e+00 1.2866e+00
1.9872e+00 3.1962e-01 1.9782e+00 2.8376e-01
2.4875e+00 8.7469e-01 2.4872e+00 8.2868e-01
2.4875e+00 1.3747e+00 2.4975e+00 1.3300e+00
2.4875e+00 3.7469e-01 2.4771e+00 3.2709e-01
2.9888e+00 9.1978e-01 2.9876e+00 8.6143e-01
2.9888e+00 1.4198e+00 2.9980e+00 1.3629e+00
2.9888e+00 4.1978e-01 2.9774e+00 3.6005e-01
3.4909e+00 9.5486e-01 3.4886e+00 8.8426e-01
3.4909e+00 1.4549e+00 3.4986e+00 1.3860e+00
3.4909e+00 4.5486e-01 3.4787e+00 3.8311e-01
3.9936e+00 9.7994e-01 3.9899e+00 8.9770e-01
3.9936e+00 1.4799e+00 3.9990e+00 1.3997e+00
3.9936e+00 4.7994e-01 3.9810e+00 3.9678e-01
4.4967e+00 9.9498e-01 4.4915e+00 9.0231e-01
4.4967e+00 1.4950e+00 4.4990e+00 1.4047e+00
4.4967e+00 4.9498e-01 4.4840e+00 4.0165e-01
5.0000e+00 1.0000e+00 4.9930e+00 8.9870e-01
5.0000e+00 1.5000e+00 4.9985e+00 1.4014e+00
5.0000e+00 5.0000e-01 4.9878e+00 3.9832e-01
5.5033e+00 9.9498e-01 5.4946e+00 8.8752e-01
5.5033e+00 1.4950e+00 5.4973e+00 1.3905e+00
5.5033e+00 4.9498e-01 5.4922e+00 3.8746e-01
6.0064e+00 9.7994e-01 5.9960e+00 8.6945e-01
6.0064e+00 1.4799e+00 5.9954e+00 1.3725e+00
6.0064e+00 4.7994e-01 5.9972e+00 3.6988e-01
6.5091e+00 9.5486e-01 6.4977e+00 8.4530e-01
6.5091e+00 1.4549e+00 6.4933e+00 1.3474e+00
6.5091e+00 4.5486e-01 6.5027e+00 3.4630e-01
7.0112e+00 9.1978e-01 6.9991e+00 8.2050e-01
7.0112e+00 1.4198e+00 6.9909e+00 1.3233e+00
7.0112e+00 4.1978e-01 7.0077e+00 3.2092e-01
7.5125e+00 8.7469e-01 7.4997e+00 7.8925e-01
7.5125e+00 1.3747e+00 7.4884e+00 1.2917e+00
7.5125e+00 3.7469e-01 7.5112e+00 2.8908e-01
8.0128e+00 8.1962e-01 7.9996e+00 7.5041e-01
8.0128e+00 1.3196e+00 7.9863e+00 1.2524e+00
8.0128e+00 3.1962e-01 8.0129e+00 2.4981e-01
8.5119e+00 7.5459e-01 8.4987e+00 7.0301e-01
8.5119e+00 1.2546e+00 8.4842e+00 1.2045e+00
8.5119e+00 2.5459e-01 8.5129e+00 2.0204e-01
9.0096e+00 6.7962e-01 8.9969e+00 6.4611e-01
9.0096e+00 1.1796e+00 8.9820e+00 1.1471e+00
9.0096e+00 1.7962e-01 9.0107e+00 1.4484e-01
9.5057e+00 5.9474e-01 9.4940e+00 5.7882e-01
9.5057e+00 1.0947e+00 9.4794e+00 1.0793e+00
9.5057e+00 9.4745e-02 9.5064e+00 7.7440e-02
1.0000e+01 5.0000e-01 9.9903e+00 5.0017e-01
1.0000e+01 1.0000e+00 9.9759e+00 1.0002e+00
1.0000e+01 0.0000e+00 1.0000e+01 0.0000e+00
1 2 3 4
2 5 6 3
4 3 7 8
3 6 9 7
8 7 10 11
7 9 12 10
11 10 13 14
10 12 15 13
14 13 16 17
13 15 18 16
17 16 19 20
16 18 21 19
20 19 22 23
19 21 24 22
23 22 25 26
22 24 27 25
26 25 28 29
25 27 30 28
29 28 31 32
28 30 33 31
32 31 34 35
31 33 36 34
35 34 37 38
34 36 39 37
38 37 40 41
37 39 42 40
41 40 43 44
40 42 45 43
44 43 46 47
43 45 48 46
47 46 49 50
46 48 51 49
50 49 52 53
49 51 54 52
53 52 55 56
52 54 57 55
56 55 58 59
55 57 60 58
59 58 61 62
58 60 63 61
ZONE N=63, E= 40, F=FEPOINT, ET=QUADRILATERAL, SOLUTIONTIME= 9.0000e+00
0.0000e+00 1.0000e+00 8.6946e-03 1.0020e+00
0.0000e+00 5.0000e-01 1.4268e-03 5.0139e-01
4.9432e-01 5.9474e-01 4.9594e-01 5.8890e-01
4.9432e-01 1.0947e+00 5.0407e-01 1.0896e+00
0.0000e+00 0.0000e+00 0.0000e+00 0.0000e+00
4.9432e-01 9.4745e-02 4.9103e-01 8.6681e-02
9.9043e-01 6.7962e-01 9.9185e-01 6.6423e-01
9.9043e-01 1.1796e+00 1.0013e+00 1.1651e+00
9.9043e-01 1.7962e-01 9.8428e-01 1.6194e-01
1.4881e+00 7.5459e-01 1.4892e+00 7.2779e-01
1.4881e+00 1.2546e+00 1.4998e+00 1.2288e+00
1.4881e+00 2.5459e-01 1.4796e+00 2.2560e-01
1.9872e+00 8.1962e-01 1.9877e+00 7.7998e-01
1.9872e+00 1.3196e+00 1.9992e+00 1.2812e+00
1.9872e+00 3.1962e-01 1.9768e+00 2.7797e-01
2.4875e+00 8.7469e-01 2.4872e+00 8.2124e-01
2.4875e+00 1.3747e+00 2.4992e+00 1.3227e+00
2.4875e+00 3.7469e-01 2.4756e+00 3.1943e-01
2.9888e+00 9.1978e-01 2.9875e+00 8.5205e-01
2.9888e+00 1.4198e+00 2.9996e+00 1.3538e+00
2.9888e+00 4.1978e-01 2.9757e+00 3.5049e-01
3.4909e+00 9.5486e-01 3.4883e+00 8.7296e-01
3.4909e+00 1.4549e+00 3.4998e+00 1.3750e+00
3.4909e+00 4.5486e-01 3.4769e+00 3.7166e-01
3.9936e+00 9.7994e-01 3.9895e+00 8.8460e-01
3.9936e+00 1.4799e+00 3.9999e+00 1.3869e+00
3.9936e+00 4.7994e-01 3.9791e+00 3.8357e-01
4.4967e+00 9.9498e-01 4.4907e+00 8.8761e-01
4.4967e+00 1.4950e+00 4.4994e+00 1.3903e+00
4.4967e+00 4.9498e-01 4.4822e+00 3.8687e-01
5.0000e+00 1.0000e+00 4.9920e+00 8.8270e-01
5.0000e+00 1.5000e+00 4.9983e+00 1.3858e+00
5.0000e+00 5.0000e-01 4.9860e+00 3.8227e-01
5.5033e+00 9.9498e-01 5.4933e+00 8.7061e-01
5.5033e+00 1.4950e+00 5.4964e+00 1.3740e+00
5.5033e+00 4.9498e-01 5.4906e+00 3.7055e-01
6.0064e+00 9.7994e-01 5.9945e+00 8.5212e-01
6.0064e+00 1.4799e+00 5.9937e+00 1.3557e+00
6.0064e+00 4.7994e-01 5.9959e+00 3.5263e-01
6.5091e+00 9.5486e-01 6.4961e+00 8.2819e-01
6.5091e+00 1.4549e+00 6.4909e+00 1.3307e+00
6.5091e+00 4.5486e-01 6.5019e+00 3.2934e-01
7.0112e+00 9.1978e-01 6.9974e+00 8.0497e-01
7.0112e+00 1.4198e+00 6.9878e+00 1.3082e+00
7.0112e+00 4.1978e-01 7.0073e+00 3.0548e-01
7.5125e+00 8.7469e-01 7.4978e+00 7.7586e-01
7.5125e+00 1.3747e+00 7.4848e+00 1.2786e+00
7.5125e+00 3.7469e-01 7.5111e+00 2.7570e-01
8.0128e+00 8.1962e-01 7.9976e+00 7.3954e-01
8.0128e+00 1.3196e+00 7.9822e+00 1.2417e+00
8.0128e+00 3.1962e-01 8.0131e+00 2.3890e-01
8.5119e+00 7.5459e-01 8.4967e+00 6.9488e-01
8.5119e+00 1.2546e+00 8.4799e+00 1.1965e+00
8.5119e+00 2.5459e-01 8.5131e+00 1.9382e-01
9.0096e+00 6.7962e-01 8.9949e+00 6.4081e-01
9.0096e+00 1.1796e+00 8.9777e+00 1.1419e+00
9.0096e+00 1.7962e-01 9.0110e+00 1.3939e-01
9.5057e+00 5.9474e-01 9.4922e+00 5.7628e-01
9.5057e+00 1.0947e+00 9.4752e+00 1.0767e+00
9.5057e+00 9.4745e-02 9.5065e+00 7.4729e-02
1.0000e+01 5.0000e-01 9.9886e+00 5.0018e-01
1.0000e+01 1.0000e+00 9.9720e+00 1.0001e+00
1.0000e+01 0.0000e+00 1.0000e+01 0.0000e+00
1 2 3 4
2 5 6 3
4 3 7 8
3 6 9 7
8 7 10 11
7 9 12 10
11 10 13 14
10 12 15 13
14 13 16 17
13 15 18 16
17 16 19 20
16 18 21 19
20 19 22 23
19 21 24 22
23 22 25 26
22 24 27 25
26 25 28 29
25 27 30 28
29 28 31 32
28 30 33 31
32 31 34 35
31 33 36 34
35 34 37 38
34 36 39 37
38 37 40 41
37 39 42 40
41 40 43 44
40 42 45 43
44 43 46 47
43 45 48 46
47 46 49 50
46 48 51 49
50 49 52 53
49 51 54 52
53 52 55 56
52 54 57 55
56 55 58 59
55 57 60 58
59 58 61 62
58 60 63 61
ZONE N=63, E= 40, F=FEPOINT, ET=QUADRILATERAL, SOLUTIONTIME= 1.0000e+01
0.0000e+00 1.0000e+00 1.0119e-02 1.0023e+00
0.0000e+00 5.0000e-01 1.7550e-03 5.0158e-01
4.9432e-01 5.9474e-01 4.9631e-01 5.8800e-01